272
Lattice="15.885412552840169 0.0 0.0 7.871021340856187e-07 15.611586824179794 0.0 -0.0037537630245884353 1.3956961951263332e-06 18.721475359114184" Properties=species:S:1:pos:R:3:energy:R:1:energy_pair:R:1:energy_bond:R:1:energy_angle:R:1:energy_dihedral:R:1:energy_improper:R:1:energy_kspace:R:1:forces:R:3 refcode=VEJYUF template=H topology=cag pressure=-1000.0 pbc="T T T"
Zn      13.24540000       7.91447000      12.77190000      -0.58527664      -0.67095110       0.00018293       0.00458818       0.08090094       0.00000006       0.00000000       0.00000006       0.00000057       0.00000049
C       11.68390000       9.28549000      14.90000000       0.00544024      -0.02495361       0.00435618       0.00799834       0.01803934       0.00000004       0.00000000      -0.00000125       0.00000028      -0.00000096
C       12.96720000       9.54021000      16.65210000       0.08216804      -0.07060327       0.00363292       0.14105779       0.00808051       0.00000002       0.00000000       0.00000143       0.00000060       0.00000182
C       13.68170000       8.84959000      15.67400000       0.08987601      -0.07113838       0.00369957       0.14112718       0.01618804       0.00000002       0.00000000       0.00000111       0.00000079       0.00000199
N       11.69420000       9.79609000      16.15650000       0.06711983      -0.04477127       0.00242925       0.06997882       0.03948302       0.00000002       0.00000000      -0.00000088       0.00000099       0.00000070
N       12.85140000       8.67805000      14.57350000       0.06542646      -0.04459521       0.00243508       0.06873861       0.03884782       0.00000002       0.00000000      -0.00000060      -0.00000051      -0.00000228
H       13.25670000       9.85736000      17.66130000      -0.09657706      -0.11132780       0.00007319       0.01464826       0.00002948       0.00000000       0.00000000      -0.00000038       0.00000001      -0.00000135
H       14.70530000       8.45650000      15.67500000      -0.09445439      -0.10922594       0.00008532       0.01465685       0.00002919       0.00000000       0.00000000      -0.00000040       0.00000050      -0.00000015
H       10.80960000       9.31880000      14.23680000      -0.06805693      -0.06965142       0.00000846       0.00150433       0.00008161       0.00000000       0.00000000       0.00000063       0.00000021       0.00000077
C       15.69360000       6.39933000      11.84340000       0.01250083      -0.02845474       0.00514290       0.00848163       0.02733101       0.00000007       0.00000000       0.00000028       0.00000175      -0.00000205
C        0.22761000       4.91959000      13.39690000       0.08110432      -0.07313790       0.00429694       0.13957821       0.01036710       0.00000004       0.00000000       0.00000447      -0.00000385      -0.00000125
C       15.03020000       5.69481000      13.80380000       0.07671760      -0.07544487       0.00440458       0.13966103       0.00809686       0.00000004       0.00000000      -0.00000515       0.00000306       0.00000230
N        0.62488800       5.35621000      12.13860000       0.06463550      -0.04913413       0.00275190       0.06964839       0.04136957       0.00000004       0.00000000      -0.00000088      -0.00000002       0.00000176
N       14.78810000       6.64844000      12.82350000       0.06423438      -0.04955346       0.00292668       0.06878848       0.04207255       0.00000003       0.00000000       0.00000062      -0.00000119       0.00000107
H        0.72359200       4.07364000      13.88930000      -0.09905489      -0.11403068       0.00004744       0.01489579       0.00003239       0.00000001       0.00000000      -0.00000135       0.00000101      -0.00000051
H       14.43200000       5.66081000      14.72260000      -0.09175107      -0.10666008       0.00006493       0.01481231       0.00003181       0.00000000       0.00000000       0.00000046      -0.00000041      -0.00000132
H       15.75890000       6.97893000      10.91330000      -0.06622696      -0.06789084       0.00000888       0.00153115       0.00012389       0.00000000       0.00000000       0.00000031      -0.00000007       0.00000140
Zn       2.25069000       4.74579000      11.15040000      -0.57894981      -0.66586882       0.00008302       0.00617912       0.08065680       0.00000007       0.00000000      -0.00000012      -0.00000012      -0.00000001
C        3.77503000       2.31950000      11.97200000       0.03415461      -0.02245393       0.00458059       0.00786542       0.04416244       0.00000001       0.00000000       0.00000078       0.00000046       0.00000034
C        2.45212000       0.58525900      11.80640000       0.07568077      -0.07011846       0.00368174       0.14109292       0.00102501       0.00000000       0.00000000      -0.00000099      -0.00000010       0.00000103
C        1.73615000       1.72658000      11.44810000       0.07555111      -0.07132875       0.00374752       0.14105172       0.00208092       0.00000001       0.00000000      -0.00000074      -0.00000023       0.00000116
N        3.74767000       0.97200700      12.12840000       0.06877027      -0.04443173       0.00259056       0.06940165       0.04120978       0.00000000       0.00000000       0.00000062      -0.00000012       0.00000078
N        2.58125000       2.82240000      11.57050000       0.06612419      -0.04448593       0.00249064       0.06819699       0.03992277       0.00000001       0.00000000       0.00000012       0.00000090       0.00000059
H        2.14653000      15.14450000      11.84770000      -0.09333083      -0.10807289       0.00008278       0.01465559       0.00000367       0.00000000       0.00000000      -0.00000028       0.00000068       0.00000159
H        0.69409200       1.84969000      11.13010000      -0.08964141      -0.10441339       0.00009137       0.01467428       0.00000637       0.00000000       0.00000000       0.00000005       0.00000045       0.00000179
H        4.66380000       2.93850000      12.15570000      -0.07771628      -0.07929994       0.00000091       0.00156653       0.00001617       0.00000000       0.00000000       0.00000002      -0.00000031      -0.00000038
Zn       5.30270000      15.50380000      12.77190000      -0.58527664      -0.67095110       0.00018293       0.00458818       0.08090094       0.00000006       0.00000000      -0.00000001       0.00000007       0.00000049
C        3.74115000      14.13280000      14.90000000       0.00544024      -0.02495361       0.00435618       0.00799834       0.01803934       0.00000004       0.00000000      -0.00000169      -0.00000043      -0.00000112
C        5.02452000      13.87810000      16.65210000       0.08216804      -0.07060327       0.00363292       0.14105779       0.00808051       0.00000002       0.00000000       0.00000221      -0.00000021       0.00000151
C        5.73898000      14.56870000      15.67400000       0.08987601      -0.07113838       0.00369957       0.14112718       0.01618804       0.00000002       0.00000000       0.00000194      -0.00000042       0.00000173
N        3.75154000      13.62220000      16.15650000       0.06711983      -0.04477127       0.00242926       0.06997882       0.03948302       0.00000002       0.00000000      -0.00000192      -0.00000122       0.00000050
N        4.90870000      14.74020000      14.57350000       0.06542646      -0.04459521       0.00243508       0.06873861       0.03884782       0.00000002       0.00000000      -0.00000024       0.00000038      -0.00000183
H        5.31401000      13.56090000      17.66130000      -0.09657706      -0.11132780       0.00007319       0.01464826       0.00002948       0.00000000       0.00000000      -0.00000030      -0.00000016      -0.00000095
H        6.76263000      14.96180000      15.67500000      -0.09445439      -0.10922594       0.00008532       0.01465685       0.00002919       0.00000000       0.00000000      -0.00000105      -0.00000079      -0.00000008
H        2.86688000      14.09950000      14.23680000      -0.06805693      -0.06965142       0.00000846       0.00150433       0.00008161       0.00000000       0.00000000       0.00000095      -0.00000027       0.00000100
C        7.75094000       1.40737000      11.84340000       0.01250083      -0.02845474       0.00514290       0.00848163       0.02733101       0.00000007       0.00000000       0.00000020      -0.00000085      -0.00000059
C        7.08753000       2.11189000      13.80380000       0.07671760      -0.07544487       0.00440454       0.13966103       0.00809686       0.00000003       0.00000000       0.00000051       0.00000175       0.00000123
C        8.17032000       2.88711000      13.39690000       0.08110432      -0.07313790       0.00429690       0.13957821       0.01036710       0.00000004       0.00000000      -0.00000134       0.00000043       0.00000202
N        6.84539000       1.15826000      12.82350000       0.06423438      -0.04955346       0.00292669       0.06878848       0.04207255       0.00000003       0.00000000      -0.00000104      -0.00000160      -0.00000045
N        8.56759000       2.45049000      12.13860000       0.06463550      -0.04913413       0.00275190       0.06964839       0.04136957       0.00000003       0.00000000       0.00000112       0.00000000      -0.00000125
H        6.48926000       2.14589000      14.72260000      -0.09175107      -0.10666008       0.00006493       0.01481231       0.00003182       0.00000000       0.00000000      -0.00000025       0.00000014      -0.00000062
H        8.66630000       3.73306000      13.88930000      -0.09905489      -0.11403068       0.00004744       0.01489579       0.00003239       0.00000000       0.00000000      -0.00000069      -0.00000018      -0.00000041
H        7.81616000       0.82776800      10.91330000      -0.06622696      -0.06789084       0.00000888       0.00153115       0.00012389       0.00000000       0.00000000       0.00000034      -0.00000010       0.00000114
Zn      10.19340000       3.06092000      11.15040000      -0.57894981      -0.66586882       0.00008302       0.00617912       0.08065680       0.00000007       0.00000000       0.00000013      -0.00000068       0.00000054
C       11.71770000       5.48720000      11.97200000       0.03415465      -0.02245393       0.00458059       0.00786542       0.04416244       0.00000001       0.00000000      -0.00000199       0.00000145      -0.00000024
C        9.67886000       6.08012000      11.44810000       0.07555111      -0.07132875       0.00374752       0.14105172       0.00208091       0.00000001       0.00000000       0.00000231      -0.00000220       0.00000176
C       10.39480000       7.22144000      11.80640000       0.07568077      -0.07011846       0.00368174       0.14109248       0.00102501       0.00000000       0.00000000       0.00000243      -0.00000195       0.00000177
N       10.52400000       4.98430000      11.57050000       0.06612419      -0.04448593       0.00249064       0.06819699       0.03992277       0.00000001       0.00000000      -0.00000025       0.00000240       0.00000082
N       11.69040000       6.83470000      12.12840000       0.06877027      -0.04443173       0.00259057       0.06940165       0.04120978       0.00000000       0.00000000      -0.00000251      -0.00000083      -0.00000024
H        8.63680000       5.95702000      11.13010000      -0.08964141      -0.10441339       0.00009138       0.01467428       0.00000637       0.00000000       0.00000000      -0.00000175      -0.00000047       0.00000127
H       10.08920000       8.27377000      11.84770000      -0.09333083      -0.10807289       0.00008278       0.01465559       0.00000367       0.00000000       0.00000000      -0.00000101       0.00000103       0.00000162
H       12.60650000       4.86820000      12.15570000      -0.07771628      -0.07929994       0.00000091       0.00156652       0.00001617       0.00000000       0.00000000       0.00000160      -0.00000082      -0.00000009
Zn       5.30156000       7.69797000      15.30990000      -0.58528097      -0.67095543       0.00018202       0.00457869       0.08091005       0.00000006       0.00000000       0.00000047       0.00000070       0.00000038
C        3.74062000       6.32643000      13.18150000       0.00548513      -0.02495730       0.00435749       0.00799916       0.01808574       0.00000004       0.00000000       0.00000304       0.00000021      -0.00000197
C        5.73918000       6.76094000      12.40860000       0.08987341      -0.07113014       0.00369948       0.14112241       0.01618136       0.00000002       0.00000000      -0.00000260       0.00000045       0.00000243
C        5.02506000       6.07008000      11.43050000       0.08213508      -0.07060760       0.00363327       0.14105476       0.00805462       0.00000002       0.00000000      -0.00000309       0.00000009       0.00000198
N        4.90822000       6.93354000      13.50840000       0.06543253      -0.04458827       0.00243494       0.06873384       0.03885237       0.00000002       0.00000000       0.00000019      -0.00000104      -0.00000261
N        3.75164000       5.81506000      11.92540000       0.06714151      -0.04477040       0.00242997       0.06998316       0.03949910       0.00000002       0.00000000       0.00000262       0.00000148       0.00000099
H        6.76303000       7.15350000      12.40810000      -0.09450122      -0.10927321       0.00008524       0.01465724       0.00002929       0.00000000       0.00000000       0.00000142       0.00000102      -0.00000026
H        5.31511000       5.75219000      10.42170000      -0.09658704      -0.11133777       0.00007322       0.01464831       0.00002948       0.00000000       0.00000000       0.00000039       0.00000011      -0.00000147
H        2.86588000       6.29390000      13.84420000      -0.06806300      -0.06965706       0.00000848       0.00150416       0.00008157       0.00000000       0.00000000      -0.00000138      -0.00000019       0.00000166
C        7.75029000       9.21249000      16.23830000       0.01252832      -0.02844703       0.00514415       0.00848341       0.02734775       0.00000007       0.00000000      -0.00000039       0.00000059      -0.00000124
C        7.08746000       9.91649000      14.27750000       0.07672368      -0.07542709       0.00440484       0.13965930       0.00808693       0.00000003       0.00000000       0.00000461       0.00000408       0.00000208
C        8.17049000      10.69140000      14.68430000       0.08109998      -0.07313053       0.00429734       0.13957778       0.01035509       0.00000004       0.00000000      -0.00000174      -0.00000024      -0.00000034
N        6.84478000       8.96336000      15.25820000       0.06424739      -0.04953959       0.00292732       0.06878544       0.04207411       0.00000003       0.00000000      -0.00000135      -0.00000262       0.00000232
N        8.56741000      10.25520000      15.94280000       0.06462466      -0.04912589       0.00275233       0.06963885       0.04135942       0.00000003       0.00000000       0.00000009       0.00000104      -0.00000053
H        6.48934000       9.95038000      13.35860000      -0.09178360      -0.10669217       0.00006485       0.01481235       0.00003180       0.00000000       0.00000000      -0.00000170       0.00000032      -0.00000121
H        8.66689000      11.53700000      14.19160000      -0.09904145      -0.11401767       0.00004744       0.01489618       0.00003232       0.00000000       0.00000000      -0.00000085       0.00000006       0.00000102
H        7.81513000       8.63324000      17.16870000      -0.06623260      -0.06789648       0.00000889       0.00153106       0.00012376       0.00000000       0.00000000       0.00000036      -0.00000037       0.00000060
Zn      10.19320000      10.86560000      16.93100000      -0.57899318      -0.66587316       0.00008272       0.00616486       0.08063078       0.00000007       0.00000000       0.00000034      -0.00000098       0.00000222
C       11.71740000      13.29230000      16.10940000       0.03415175      -0.02245810       0.00458437       0.00786577       0.04415984       0.00000001       0.00000000      -0.00000079       0.00000235      -0.00000250
C       10.39340000      15.02590000      16.27330000       0.07566125      -0.07012062       0.00368272       0.14108294       0.00101660       0.00000000       0.00000000       0.00000124      -0.00000365      -0.00000145
C        9.67777000      13.88430000      16.63150000       0.07555675      -0.07132268       0.00374857       0.14104131       0.00208951       0.00000001       0.00000000      -0.00000207      -0.00000796       0.00000108
N       11.68940000      14.63970000      15.95240000       0.06877027      -0.04443520       0.00259287       0.06939427       0.04121832       0.00000000       0.00000000       0.00000317      -0.00000057       0.00000300
N       10.52360000      12.78890000      16.51020000       0.06610424      -0.04448507       0.00249189       0.06818919       0.03990816       0.00000001       0.00000000      -0.00000399       0.00000824       0.00000117
H       10.08720000       0.46640500      16.23130000      -0.09332779      -0.10807029       0.00008278       0.01465585       0.00000366       0.00000000       0.00000000      -0.00000097       0.00000445      -0.00000062
H        8.63552000      13.76070000      16.94860000      -0.08966526      -0.10443811       0.00009131       0.01467524       0.00000636       0.00000000       0.00000000       0.00000314       0.00000156       0.00000026
H       12.60660000      12.67370000      15.92670000      -0.07773059      -0.07931381       0.00000091       0.00156643       0.00001614       0.00000000       0.00000000       0.00000109      -0.00000074      -0.00000070
Zn      13.24430000       0.10873600      15.30990000      -0.58528097      -0.67095543       0.00018202       0.00457869       0.08091005       0.00000006       0.00000000      -0.00000014      -0.00000025       0.00000133
C       11.68330000       1.48028000      13.18150000       0.00548508      -0.02495730       0.00435744       0.00799916       0.01808574       0.00000004       0.00000000      -0.00000205       0.00000026       0.00000177
C       13.68190000       1.04577000      12.40860000       0.08987341      -0.07113014       0.00369948       0.14112241       0.01618136       0.00000002       0.00000000       0.00000336      -0.00000069      -0.00000203
C       12.96780000       1.73662000      11.43050000       0.08213508      -0.07060760       0.00363327       0.14105476       0.00805462       0.00000002       0.00000000       0.00000380      -0.00000104      -0.00000177
N       12.85090000       0.87316600      13.50840000       0.06543253      -0.04458827       0.00243493       0.06873384       0.03885237       0.00000002       0.00000000      -0.00000053      -0.00000119       0.00000186
N       11.69430000       1.99165000      11.92540000       0.06714151      -0.04477040       0.00242996       0.06998316       0.03949910       0.00000002       0.00000000      -0.00000370       0.00000104       0.00000053
H       14.70570000       0.65320200      12.40810000      -0.09450122      -0.10927321       0.00008523       0.01465724       0.00002929       0.00000000       0.00000000      -0.00000223       0.00000027      -0.00000002
H       13.25780000       2.05451000      10.42170000      -0.09658704      -0.11133777       0.00007321       0.01464831       0.00002948       0.00000000       0.00000000      -0.00000076      -0.00000080       0.00000116
H       10.80860000       1.51280000      13.84420000      -0.06806300      -0.06965706       0.00000848       0.00150416       0.00008157       0.00000000       0.00000000       0.00000173       0.00000012      -0.00000075
C       15.69300000      14.20580000      16.23830000       0.01252832      -0.02844703       0.00514411       0.00848345       0.02734775       0.00000007       0.00000000       0.00000001       0.00000139       0.00000230
C        0.22778600      12.72690000      14.68430000       0.08109998      -0.07313053       0.00429740       0.13957778       0.01035509       0.00000004       0.00000000       0.00000606      -0.00000506       0.00000301
C       15.03020000      13.50180000      14.27750000       0.07672368      -0.07542709       0.00440488       0.13965887       0.00808693       0.00000004       0.00000000      -0.00000432       0.00000260      -0.00000084
N        0.62470500      13.16310000      15.94280000       0.06462466      -0.04912589       0.00275233       0.06963885       0.04135942       0.00000004       0.00000000      -0.00000213      -0.00000052      -0.00000291
N       14.78750000      14.45490000      15.25820000       0.06424739      -0.04953959       0.00292730       0.06878544       0.04207411       0.00000003       0.00000000       0.00000116      -0.00000113       0.00000038
H        0.72418700      11.88130000      14.19160000      -0.09904145      -0.11401767       0.00004744       0.01489618       0.00003232       0.00000001       0.00000000      -0.00000175       0.00000113       0.00000136
H       14.43200000      13.46790000      13.35860000      -0.09178360      -0.10669261       0.00006485       0.01481235       0.00003180       0.00000000       0.00000000       0.00000001      -0.00000070       0.00000077
H       15.75780000      14.78500000      17.16870000      -0.06623260      -0.06789648       0.00000889       0.00153106       0.00012376       0.00000000       0.00000000       0.00000025      -0.00000047      -0.00000070
Zn       2.25052000      12.55270000      16.93100000      -0.57899318      -0.66587316       0.00008272       0.00616490       0.08063078       0.00000007       0.00000000       0.00000056      -0.00000054       0.00000015
C        3.77468000      10.12600000      16.10940000       0.03415175      -0.02245810       0.00458437       0.00786577       0.04415984       0.00000001       0.00000000       0.00000127       0.00000056       0.00000010
C        1.73506000       9.53399000      16.63150000       0.07555675      -0.07132268       0.00374858       0.14104131       0.00208950       0.00000001       0.00000000      -0.00000126      -0.00000152       0.00000054
C        2.45067000       8.39243000      16.27330000       0.07566125      -0.07012062       0.00368270       0.14108294       0.00101661       0.00000000       0.00000000      -0.00000133      -0.00000125       0.00000056
N        2.58085000      10.62940000      16.51020000       0.06610424      -0.04448507       0.00249191       0.06818919       0.03990816       0.00000001       0.00000000       0.00000018       0.00000119       0.00000046
N        3.74668000       8.77859000      15.95240000       0.06877027      -0.04443520       0.00259285       0.06939427       0.04121832       0.00000000       0.00000000       0.00000152      -0.00000064      -0.00000017
H        0.69281700       9.65756000      16.94860000      -0.08966526      -0.10443811       0.00009132       0.01467524       0.00000636       0.00000000       0.00000000       0.00000086      -0.00000048       0.00000004
H        2.14451000       7.34030000      16.23130000      -0.09332779      -0.10807029       0.00008277       0.01465585       0.00000366       0.00000000       0.00000000       0.00000057       0.00000042       0.00000019
H        4.66392000      10.74460000      15.92670000      -0.07773059      -0.07931381       0.00000091       0.00156643       0.00001614       0.00000000       0.00000000      -0.00000065      -0.00000065       0.00000056
C        2.51313000       6.24469000       8.57484000       0.00322440      -0.02568421       0.00481493       0.00780194       0.01629172       0.00000002       0.00000000       0.00000047       0.00000142       0.00000095
C        1.81067000       4.21598000       8.15779000       0.08968651      -0.06527945       0.00389178       0.13996675       0.01110746       0.00000001       0.00000000      -0.00000008      -0.00000132      -0.00000081
C        1.90173000       4.91129000       6.95344000       0.09150390      -0.06508171       0.00397425       0.14011636       0.01249489       0.00000001       0.00000000      -0.00000014      -0.00000172      -0.00000037
N        2.21938000       5.06536000       9.17872000       0.06298202      -0.04723912       0.00273717       0.06949141       0.03799264       0.00000001       0.00000000       0.00000044       0.00000037       0.00000183
N        2.36629000       6.19098000       7.22726000       0.06199853      -0.04733582       0.00273287       0.06804088       0.03856066       0.00000001       0.00000000       0.00000056       0.00000139      -0.00000039
H        1.50925000       3.18214000       8.36540000      -0.09575315      -0.11056676       0.00007562       0.01471110       0.00002678       0.00000000       0.00000000       0.00000092       0.00000069       0.00000036
H        1.69146000       4.59711000       5.92387000      -0.10340691      -0.11823830       0.00007237       0.01473729       0.00002160       0.00000000       0.00000000       0.00000083       0.00000004       0.00000100
H        2.87563000       7.13181000       9.11158000      -0.06656130      -0.06814886       0.00000184       0.00154431       0.00004148       0.00000000       0.00000000      -0.00000057      -0.00000041      -0.00000029
C       10.45580000       1.56201000       8.57484000       0.00322442      -0.02568421       0.00481493       0.00780194       0.01629172       0.00000002       0.00000000      -0.00000019       0.00000034      -0.00000008
C        9.75338000       3.59072000       8.15779000       0.08968651      -0.06527945       0.00389178       0.13996675       0.01110746       0.00000001       0.00000000       0.00000072      -0.00000056       0.00000071
C        9.84443000       2.89541000       6.95344000       0.09150390      -0.06508171       0.00397425       0.14011636       0.01249489       0.00000001       0.00000000       0.00000073      -0.00000054       0.00000057
N       10.16210000       2.74134000       9.17872000       0.06298202      -0.04723912       0.00273718       0.06949141       0.03799264       0.00000001       0.00000000       0.00000006      -0.00000006      -0.00000038
N       10.30900000       1.61572000       7.22726000       0.06199853      -0.04733582       0.00273287       0.06804088       0.03856066       0.00000001       0.00000000      -0.00000000       0.00000059       0.00000040
H        9.45195000       4.62456000       8.36540000      -0.09575315      -0.11056676       0.00007562       0.01471110       0.00002678       0.00000000       0.00000000       0.00000057       0.00000040       0.00000038
H        9.63416000       3.20960000       5.92387000      -0.10340691      -0.11823830       0.00007237       0.01473733       0.00002160       0.00000000       0.00000000       0.00000058       0.00000039      -0.00000006
H       10.81830000       0.67488800       9.11158000      -0.06656130      -0.06814886       0.00000184       0.00154431       0.00004148       0.00000000       0.00000000      -0.00000015      -0.00000057       0.00000033
C        2.51554000      14.05110000       0.78548600       0.00321373      -0.02568122       0.00481619       0.00780302       0.01627572       0.00000002       0.00000000      -0.00000065      -0.00000171       0.00000096
C        1.81378000      12.02210000       1.20185000       0.08970776      -0.06526471       0.00389218       0.13996328       0.01111700       0.00000001       0.00000000       0.00000041       0.00000139      -0.00000056
C        1.90426000      12.71710000       2.40640000       0.09151344      -0.06507261       0.00397452       0.14011332       0.01249797       0.00000001       0.00000000       0.00000034       0.00000143      -0.00000075
N        2.22241000      12.87190000       0.18124200       0.06297899      -0.04723218       0.00273825       0.06948751       0.03798531       0.00000001       0.00000000      -0.00000035      -0.00000052       0.00000173
N        2.36837000      13.99710000       2.13302000       0.06200503      -0.04733062       0.00273271       0.06803915       0.03856378       0.00000001       0.00000000      -0.00000064      -0.00000156      -0.00000044
H        1.51282000      10.98820000       0.99391500      -0.09577049      -0.11058367       0.00007556       0.01471097       0.00002678       0.00000000       0.00000000      -0.00000051      -0.00000116       0.00000030
H        1.69384000      12.40260000       3.43583000      -0.10339347      -0.11822529       0.00007241       0.01473790       0.00002159       0.00000000       0.00000000      -0.00000058      -0.00000030       0.00000107
H        2.87783000      14.93860000       0.24905800      -0.06655739      -0.06814495       0.00000185       0.00154424       0.00004146       0.00000000       0.00000000       0.00000030       0.00000042      -0.00000042
C       10.45820000       9.36714000       0.78548700       0.00321369      -0.02568122       0.00481619       0.00780302       0.01627572       0.00000002       0.00000000      -0.00000022       0.00000072      -0.00000075
C        9.75649000      11.39620000       1.20185000       0.08970776      -0.06526471       0.00389219       0.13996328       0.01111700       0.00000001       0.00000000      -0.00000018      -0.00000086       0.00000268
C        9.84696000      10.70120000       2.40640000       0.09151344      -0.06507261       0.00397452       0.14011376       0.01249797       0.00000001       0.00000000      -0.00000034      -0.00000091       0.00000377
N       10.16510000      10.54640000       0.18124200       0.06297899      -0.04723218       0.00273825       0.06948751       0.03798531       0.00000001       0.00000000       0.00000041      -0.00000050      -0.00000386