48
Lattice="15.885412552840169 0.0 0.0 7.871021340856187e-07 15.611586824179794 0.0 -0.0037537630245884353 1.3956961951263332e-06 18.721475359114184" Properties=species:S:1:pos:R:3:energies_mofff:R:1:e_local_mofff:R:1:ZnN:R:1:theta:R:1:Sg:R:1:Sk:R:1:forces_mofff:R:3 energy_mofff=-7.743325154786953 td_density=3.4461514927714423 refcode=VEJYUF template=H topology=cag pressure=-1000.0 pbc="T T T"
Si      13.24540420       7.91446902      12.77187340      -0.58527664      -0.48709245       1.99656296     109.45578124       0.00096378       0.00000029       0.00000006       0.00000057       0.00000049
O       12.57568340       9.22988909      15.59123002       0.05094220              nan              nan              nan              nan              nan      -0.00000004       0.00000036       0.00000007
O       15.62706065       5.80367714      12.80120928       0.04215971              nan              nan              nan              nan              nan      -0.00000015       0.00000003       0.00000017
Si       2.25069098       4.74578622      11.15037292      -0.57894982      -0.48077855       1.99780579     109.40269173       0.00158528       0.00000009      -0.00000012      -0.00000012      -0.00000001
O        2.85844206       1.68515052      11.78507233       0.05959243              nan              nan              nan              nan              nan      -0.00000005       0.00000022       0.00000086
Si       5.30269831      15.50382008      12.77187316      -0.58527664      -0.48709246       1.99656297     109.45578116       0.00096378       0.00000029      -0.00000001       0.00000007       0.00000049
O        4.63297716      14.18840045      15.59122988       0.05094220              nan              nan              nan              nan              nan      -0.00000001      -0.00000039       0.00000009
O        7.68435415       2.00302506      12.80120923       0.04215971              nan              nan              nan              nan              nan      -0.00000014      -0.00000005       0.00000013
Si      10.19339716       3.06091599      11.15037292      -0.57894982      -0.48077854       1.99780583     109.40269141       0.00158527       0.00000009       0.00000013      -0.00000068       0.00000054
O       10.80114882       6.12155163      11.78507243       0.05959247              nan              nan              nan              nan              nan      -0.00000015      -0.00000017       0.00000083
Si       5.30156048       7.69796696      15.30992296      -0.58528098      -0.48713049       1.99657721     109.45601441       0.00096312       0.00000030       0.00000047       0.00000070       0.00000038
O        4.63294490       6.38120648      12.49090159       0.05091640              nan              nan              nan              nan              nan       0.00000007       0.00000027       0.00000009
O        7.68408515       9.80778800      15.28022188       0.04216639              nan              nan              nan              nan              nan      -0.00000012       0.00000036       0.00000034
Si      10.19322722      10.86559616      16.93099929      -0.57899318      -0.48082981       1.99780830     109.40286822       0.00158163       0.00000009       0.00000034      -0.00000098       0.00000222
O       10.80029462      13.92620369      16.29535939       0.05952062              nan              nan              nan              nan              nan       0.00000010       0.00000046       0.00000003
Si      13.24426647       0.10873580      15.30992298      -0.58528098      -0.48713052       1.99657720     109.45601452       0.00096312       0.00000030      -0.00000014      -0.00000025       0.00000133
O       12.57565117       1.42549589      12.49090147       0.05091635              nan              nan              nan              nan              nan      -0.00000005      -0.00000025       0.00000009
O       15.62679156      13.61050132      15.28022163       0.04216639              nan              nan              nan              nan              nan      -0.00000009      -0.00000034       0.00000042
Si       2.25052096      12.55269355      16.93099932      -0.57899318      -0.48082979       1.99780829     109.40286802       0.00158163       0.00000009       0.00000056      -0.00000054       0.00000015
O        2.85758786       9.49208597      16.29535922       0.05952062              nan              nan              nan              nan              nan       0.00000014      -0.00000030       0.00000028
O        2.16223815       5.32566072       8.01840821       0.04367400              nan              nan              nan              nan              nan       0.00000030       0.00000006       0.00000028
O       10.10494413       2.48104086       8.01840830       0.04367402              nan              nan              nan              nan              nan       0.00000029      -0.00000000       0.00000023
O        2.16487271      13.13184568       1.34159987       0.04369759              nan              nan              nan              nan              nan      -0.00000021      -0.00000025       0.00000024
O       10.10757875      10.28644196       1.34159994       0.04369755              nan              nan              nan              nan              nan      -0.00000023       0.00000022       0.00000015
Si      10.57983917       0.10867525       5.94947259      -0.58527664      -0.48709244       1.99656298     109.45578108       0.00096379       0.00000029      -0.00000018       0.00000008      -0.00000037
O       11.24956032       1.42409490       3.13011583       0.05094220              nan              nan              nan              nan              nan       0.00000001       0.00000036      -0.00000008
O        8.19818356      13.60947007       5.92013679       0.04215971              nan              nan              nan              nan              nan       0.00000015       0.00000005      -0.00000016
Si       5.68914066      12.55157906       7.57097315      -0.57894982      -0.48077852       1.99780581     109.40269143       0.00158528       0.00000009       0.00000049      -0.00000013      -0.00000051
O        5.08138926       9.49094340       6.93627355       0.05959247              nan              nan              nan              nan              nan       0.00000006       0.00000023      -0.00000086
Si       2.63713375       7.69802620       5.94947255      -0.58527664      -0.48709245       1.99656296     109.45578130       0.00096378       0.00000029       0.00000007      -0.00000026      -0.00000001
O        3.30685460       6.38260613       3.13011597       0.05094220              nan              nan              nan              nan              nan       0.00000001      -0.00000037      -0.00000011
O        0.25547709       9.80881791       5.92013650       0.04215971              nan              nan              nan              nan              nan       0.00000015      -0.00000002      -0.00000016
Si      13.63184666      10.86670891       7.57097277      -0.57894982      -0.48077855       1.99780581     109.40269164       0.00158527       0.00000009      -0.00000015      -0.00000031      -0.00000025
O       13.02409531      13.92734460       6.93627339       0.05959247              nan              nan              nan              nan              nan       0.00000012      -0.00000019      -0.00000084
Si      10.58097700       7.91452840       3.41142308      -0.58528098      -0.48713053       1.99657721     109.45601444       0.00096312       0.00000030      -0.00000001      -0.00000046      -0.00000170
O       11.24959251       9.23128884       6.23044439       0.05091635              nan              nan              nan              nan              nan       0.00000003      -0.00000027      -0.00000008
O        8.19845263       5.80470713       3.44112432       0.04216639              nan              nan              nan              nan              nan       0.00000009      -0.00000036      -0.00000041
Si       5.68931073       4.74689906       1.79034666      -0.57899318      -0.48082979       1.99780829     109.40286805       0.00158163       0.00000009      -0.00000015      -0.00000061      -0.00000007
O        5.08224348       1.68629151       2.42598661       0.05952062              nan              nan              nan              nan              nan      -0.00000014      -0.00000030      -0.00000028
Si       2.63827147      15.50375944       3.41142266      -0.58528098      -0.48713048       1.99657721     109.45601446       0.00096312       0.00000030      -0.00000036       0.00000064      -0.00000053
O        3.30688690      14.18699934       6.23044424       0.05091640              nan              nan              nan              nan              nan      -0.00000009       0.00000027      -0.00000008
O        0.25574608       2.00199374       3.44112375       0.04216639              nan              nan              nan              nan              nan       0.00000012       0.00000035      -0.00000034
Si      13.63201654       3.05980177       1.79034634      -0.57899318      -0.48082980       1.99780830     109.40286811       0.00158163       0.00000009      -0.00000038      -0.00000064      -0.00000211
O       13.02494947       6.12040935       2.42598644       0.05952062              nan              nan              nan              nan              nan      -0.00000012       0.00000042      -0.00000003
O        5.77759357      13.13145428      10.70293776       0.04367403              nan              nan              nan              nan              nan      -0.00000029      -0.00000000      -0.00000027
O       13.72029958      10.28683436      10.70293748       0.04367401              nan              nan              nan              nan              nan      -0.00000030      -0.00000003      -0.00000025
O        5.77495897       5.32605343      17.37974603       0.04369758              nan              nan              nan              nan              nan       0.00000022      -0.00000026      -0.00000023
O       13.71766498       2.48064964      17.37974578       0.04369757              nan              nan              nan              nan              nan       0.00000022       0.00000024      -0.00000015
48
Lattice="15.596066793338537 0.0 0.0 -6.638418953639737e-07 15.492295154642314 0.0 -1.7948341711460114 1.1574460678419387e-07 18.422327977992023" Properties=species:S:1:pos:R:3:energies_mofff:R:1:e_local_mofff:R:1:ZnN:R:1:theta:R:1:Sg:R:1:Sk:R:1:forces_mofff:R:3 energy_mofff=-7.857691193242387 td_density=3.594550784877113 refcode=VEJYUF template=H topology=cag pressure=-950.0 pbc="T T T"
Si      12.00726416       7.89802308      12.59486300      -0.58523328      -0.49076883       1.99489531     109.37844365       0.00186542       0.00000039       0.00000004      -0.00000006      -0.00000052
O       11.09358025       8.96018208      15.44573014       0.05348620              nan              nan              nan              nan              nan      -0.00000000       0.00000010      -0.00000033
O       14.12228521       5.52552344      12.49159679       0.03481112              nan              nan              nan              nan              nan      -0.00000006      -0.00000017       0.00000007
Si       0.91142776       4.34860298      10.75121137      -0.56301351      -0.47239579       1.99743917     109.22734901       0.00431961       0.00000050      -0.00000009       0.00000064       0.00000024
O        1.69419442       1.31854049      11.31155846       0.06727754              nan              nan              nan              nan              nan      -0.00000022       0.00000045       0.00000009
Si       4.20923049      15.34131971      12.59486291      -0.58523328      -0.49076860       1.99489532     109.37844363       0.00186542       0.00000039      -0.00000023      -0.00000000      -0.00000066
O        3.29554677      14.27916079      15.44573013       0.05348619              nan              nan              nan              nan              nan       0.00000001      -0.00000005      -0.00000035
O        6.32425202       2.22152433      12.49159678       0.03481154              nan              nan              nan              nan              nan      -0.00000009       0.00000012       0.00000009
Si       8.70946126       3.39844469      10.75121132      -0.56301351      -0.47239559       1.99743913     109.22734957       0.00431961       0.00000050      -0.00000039      -0.00000045       0.00000034
O        9.49222754       6.42850723      11.31155836       0.06727750              nan              nan              nan              nan              nan      -0.00000019      -0.00000045       0.00000014
Si       3.64964313       7.54490591      14.93058225      -0.58986890      -0.50763049       1.99943881     109.49015454       0.00139163       0.00000115       0.00000031      -0.00000035      -0.00000005
O        3.24599288       5.97535190      12.18855085       0.04579271              nan              nan              nan              nan              nan      -0.00000035       0.00000002      -0.00000019
O        6.19562147       9.45364079      14.85757551       0.04047215              nan              nan              nan              nan              nan       0.00000017       0.00000020       0.00000008
Si       8.62569365      10.64134578      16.54242670      -0.57971303      -0.49362790       1.99816265     109.36422945       0.00235519       0.00000020       0.00000002      -0.00000058       0.00000065
O        9.07918721      13.63575398      15.53596778       0.03308330              nan              nan              nan              nan              nan       0.00000009      -0.00000016       0.00000041
Si      11.44767688       0.20214184      14.93058224      -0.58986890      -0.50763049       1.99943878     109.49015446       0.00139162       0.00000115       0.00000052       0.00000061       0.00000020
O       11.04402627       1.77169573      12.18855092       0.04579271              nan              nan              nan              nan              nan      -0.00000030       0.00000007      -0.00000029
O       13.99365462      13.78570224      14.85757552       0.04047220              nan              nan              nan              nan              nan       0.00000030      -0.00000032       0.00000015
Si       0.82766016      12.59799724      16.54242676      -0.57971303      -0.49362764       1.99816270     109.36422932       0.00235519       0.00000020      -0.00000029       0.00000014       0.00000054
O        1.28115413       9.60358902      15.53596777       0.03308378              nan              nan              nan              nan              nan       0.00000003       0.00000021       0.00000041
O        1.00177593       5.12251381       7.66417165       0.03335407              nan              nan              nan              nan              nan       0.00000057       0.00000024       0.00000045
O        8.79980952       2.62453390       7.66417165       0.03335409              nan              nan              nan              nan              nan       0.00000056      -0.00000033       0.00000035
O        2.28311662      13.01589130       1.26018776       0.04512861              nan              nan              nan              nan              nan      -0.00000022      -0.00000007      -0.00000023
O       10.08115012      10.22345159       1.26018766       0.04512862              nan              nan              nan              nan              nan      -0.00000020       0.00000000      -0.00000010
Si       9.59287603       0.15187553       5.82733760      -0.58523328      -0.49076859       1.99489533     109.37844365       0.00186542       0.00000039       0.00000028      -0.00000007       0.00000037
O       10.50655982       1.21403457       2.97647040       0.05348620              nan              nan              nan              nan              nan       0.00000000       0.00000007       0.00000036
O        7.47785452      13.27167088       5.93060374       0.03481155              nan              nan              nan              nan              nan       0.00000011      -0.00000010      -0.00000012
Si       5.09264521      12.09475058       7.67098912      -0.56301351      -0.47239559       1.99743913     109.22734967       0.00431961       0.00000050       0.00000022       0.00000019      -0.00000007
O        4.30987897       9.06468804       7.11064206       0.06727750              nan              nan              nan              nan              nan       0.00000018       0.00000044      -0.00000012
Si       1.79484227       7.59517215       5.82733757      -0.58523328      -0.49076884       1.99489529     109.37844357       0.00186542       0.00000039       0.00000030       0.00000032       0.00000032
O        2.70852617       6.53301327       2.97647040       0.05348619              nan              nan              nan              nan              nan      -0.00000005      -0.00000008       0.00000035
O       -0.32017875       9.96767177       5.93060378       0.03481111              nan              nan              nan              nan              nan       0.00000003       0.00000020      -0.00000006
Si      12.89067879      11.14459230       7.67098928      -0.56301351      -0.47239579       1.99743916     109.22734895       0.00431962       0.00000050       0.00000013      -0.00000045      -0.00000018
O       12.10791207      14.17465479       7.11064216       0.06727754              nan              nan              nan              nan              nan       0.00000025      -0.00000046      -0.00000014
Si      10.15246341       7.94828942       3.49161833      -0.58986890      -0.50763051       1.99943883     109.49015450       0.00139162       0.00000115      -0.00000055       0.00000026      -0.00000054
O       10.55611375       9.51784340       6.23364969       0.04579271              nan              nan              nan              nan              nan       0.00000031      -0.00000002       0.00000022
O        7.60648499       6.03955457       3.56462500       0.04047215              nan              nan              nan              nan              nan      -0.00000016      -0.00000022      -0.00000009
Si       5.17641271       4.85184962       1.87977384      -0.57971303      -0.49362812       1.99816264     109.36422945       0.00235519       0.00000020       0.00000055       0.00000044      -0.00000038
O        4.72291915       1.85744142       2.88623269       0.03308330              nan              nan              nan              nan              nan      -0.00000004       0.00000016      -0.00000039
Si       2.35442959      15.29105349       3.49161831      -0.58986890      -0.50763051       1.99943877     109.49015452       0.00139163       0.00000115      -0.00000043      -0.00000004      -0.00000021
O        2.75808013      13.72149956       6.23364962       0.04579271              nan              nan              nan              nan              nan       0.00000032      -0.00000005       0.00000027
O       -0.19154814       1.70749315       3.56462500       0.04047215              nan              nan              nan              nan              nan      -0.00000027       0.00000027      -0.00000013
Si      12.97444641       2.89519822       1.87977374      -0.57971303      -0.49362790       1.99816270     109.36422919       0.00235519       0.00000020      -0.00000001      -0.00000076      -0.00000036
O       12.52095251       5.88960638       2.88623281       0.03308330              nan              nan              nan              nan              nan      -0.00000009      -0.00000017      -0.00000041
O        5.00229703      12.86866135      10.75802879       0.03335408              nan              nan              nan              nan              nan      -0.00000060       0.00000035      -0.00000034
O       12.80033053      10.37068145      10.75802896       0.03335408              nan              nan              nan              nan              nan      -0.00000055      -0.00000027      -0.00000041
O        3.72095631       5.26974379      17.16201291       0.04512818              nan              nan              nan              nan              nan       0.00000023      -0.00000002       0.00000010
O       11.51898996       2.47730411      17.16201276       0.04512861              nan              nan              nan              nan              nan       0.00000018       0.00000005       0.00000020
48
Lattice="15.521083709124785 0.0 0.0 5.222382909971975e-07 15.410419959707799 0.0 -2.0548340640060063 -1.2849452294525386e-07 18.306280856647174" Properties=species:S:1:pos:R:3:energies_mofff:R:1:e_local_mofff:R:1:ZnN:R:1:theta:R:1:Sg:R:1:Sk:R:1:forces_mofff:R:3 energy_mofff=-7.900541250719686 td_density=3.6541245515713427 refcode=VEJYUF template=H topology=cag pressure=-900.0 pbc="T T T"
Si      11.82618035       7.87081529      12.54272671      -0.58647349      -0.49453560       1.99473593     109.36163645       0.00207251       0.00000050      -0.00000026       0.00000002       0.00000009
O       10.87579453       8.90618812      15.38996058       0.05338802              nan              nan              nan              nan              nan      -0.00000017       0.00000009      -0.00000012
O       13.88363825       5.45035676      12.41484383       0.03285933              nan              nan              nan              nan              nan       0.00000004       0.00000016       0.00000003
Si       0.70360076       4.24451878      10.63804863      -0.55998236      -0.47166394       1.99735077     109.16014884       0.00510718       0.00000058      -0.00000012       0.00000039      -0.00000062
O        1.53709736       1.22925465      11.20306612       0.06579449              nan              nan              nan              nan              nan      -0.00000010      -0.00000002       0.00000028
Si       4.06563877      15.24570971      12.54272672      -0.58647349      -0.49453562       1.99473590     109.36163633       0.00207251       0.00000050      -0.00000038      -0.00000001      -0.00000018
O        3.11525286      14.21033685      15.38996054       0.05338798              nan              nan              nan              nan              nan      -0.00000016      -0.00000008      -0.00000008
O        6.12309630       2.25574815      12.41484379       0.03285933              nan              nan              nan              nan              nan       0.00000009      -0.00000012       0.00000002
Si       8.46414251       3.46158629      10.63804860      -0.55998236      -0.47166394       1.99735080     109.16014848       0.00510719       0.00000058       0.00000001      -0.00000042      -0.00000082
O        9.29763942       6.47685040      11.20306613       0.06579449              nan              nan              nan              nan              nan      -0.00000013      -0.00000000       0.00000026
Si       3.41892574       7.47325613      14.79231063      -0.59183763      -0.51321136       1.99947593     109.49384067       0.00157770       0.00000133      -0.00000020       0.00000054      -0.00000028
O        3.04078322       5.87975534      12.06131144       0.04614908              nan              nan              nan              nan              nan       0.00000014      -0.00000009      -0.00000012
O        5.98983110       9.34827922      14.73249808       0.04208226              nan              nan              nan              nan              nan      -0.00000004       0.00000013       0.00000004
Si       8.38388378      10.58370542      16.43499769      -0.57796979      -0.49572426       1.99805996     109.34882547       0.00266882       0.00000029       0.00000004      -0.00000045       0.00000059
O        8.82525144      13.55772999      15.36307564       0.02612236              nan              nan              nan              nan              nan       0.00000001      -0.00000007       0.00000006
Si      11.17946729       0.23284900      14.79231066      -0.59183763      -0.51321159       1.99947595     109.49384072       0.00157770       0.00000133      -0.00000006      -0.00000071      -0.00000030
O       10.80132496       1.82634974      12.06131139       0.04614908              nan              nan              nan              nan              nan       0.00000014       0.00000006      -0.00000007
O       13.75037311      13.76824574      14.73249817       0.04208226              nan              nan              nan              nan              nan      -0.00000010      -0.00000009       0.00000001
Si       0.62334209      12.53281963      16.43499772      -0.57796979      -0.49572409       1.99805993     109.34882552       0.00266882       0.00000029      -0.00000030       0.00000048       0.00000052
O        1.06470942       9.55879510      15.36307555       0.02612280              nan              nan              nan              nan              nan       0.00000003       0.00000006       0.00000006
O        0.78551921       5.06138345       7.56251204       0.03183394              nan              nan              nan              nan              nan       0.00000025      -0.00000004       0.00000008
O        8.54606094       2.64472164       7.56251196       0.03183394              nan              nan              nan              nan              nan       0.00000022       0.00000007       0.00000012
O        2.31258080      12.91451387       1.26990562       0.04289837              nan              nan              nan              nan              nan      -0.00000011       0.00000008      -0.00000026
O       10.07312250      10.20201138       1.26990561       0.04289842              nan              nan              nan              nan              nan      -0.00000013      -0.00000007      -0.00000030
Si       9.40148361       0.16560534       5.76342741      -0.58647349      -0.49453560       1.99473591     109.36163635       0.00207251       0.00000050       0.00000046       0.00000028       0.00000041
O       10.35186950       1.20097830       2.91619364       0.05338802              nan              nan              nan              nan              nan       0.00000018       0.00000010       0.00000006
O        7.34402614      13.15556687       5.89131038       0.03285934              nan              nan              nan              nan              nan      -0.00000012       0.00000009      -0.00000000
Si       5.00297986      11.94972879       7.66810556      -0.55998236      -0.47166394       1.99735081     109.16014850       0.00510719       0.00000058       0.00000012       0.00000039       0.00000053
O        4.16948292       8.93446468       7.10308808       0.06579449              nan              nan              nan              nan              nan       0.00000016       0.00000003      -0.00000024
Si       1.64094201       7.54049977       5.76342757      -0.58647349      -0.49453563       1.99473591     109.36163645       0.00207251       0.00000050      -0.00000003      -0.00000015      -0.00000002
O        2.59132782       6.50512704       2.91619367       0.05338798              nan              nan              nan              nan              nan       0.00000018      -0.00000009       0.00000010
O       -0.41651596       9.96095825       5.89131043       0.03285932              nan              nan              nan              nan              nan      -0.00000004      -0.00000016      -0.00000003
Si      12.76352160      11.16679630       7.66810566      -0.55998236      -0.47166395       1.99735077     109.16014877       0.00510719       0.00000058      -0.00000009      -0.00000041       0.00000034
O       11.93002501      14.18206044       7.10308810       0.06579449              nan              nan              nan              nan              nan       0.00000010       0.00000001      -0.00000028
Si      10.04819663       7.93805906       3.51384359      -0.59183763      -0.51321157       1.99947593     109.49384068       0.00157770       0.00000133       0.00000011      -0.00000036       0.00000006
O       10.42633911       9.53155978       6.24484281       0.04614908              nan              nan              nan              nan              nan      -0.00000013       0.00000011       0.00000014
O        7.47729131       6.06303591       3.57365611       0.04208226              nan              nan              nan              nan              nan       0.00000004      -0.00000014      -0.00000004
Si       5.08323859       4.82760978       1.87115652      -0.57796979      -0.49572428       1.99805996     109.34882544       0.00266882       0.00000029      -0.00000005       0.00000040      -0.00000031
O        4.64187092       1.85358519       2.94307858       0.02612236              nan              nan              nan              nan              nan       0.00000001       0.00000011      -0.00000007
Si       2.28765508      15.17846621       3.51384357      -0.59183763      -0.51321159       1.99947594     109.49384071       0.00157770       0.00000133       0.00000007       0.00000046       0.00000011
O        2.66579742      13.58496539       6.24484278       0.04614908              nan              nan              nan              nan              nan      -0.00000012      -0.00000007       0.00000010
O       -0.28325079       1.64306938       3.57365607       0.04208226              nan              nan              nan              nan              nan       0.00000006       0.00000011      -0.00000003
Si      12.84378028       2.87849557       1.87115648      -0.57796979      -0.49572428       1.99805994     109.34882552       0.00266882       0.00000029       0.00000027      -0.00000053      -0.00000029